
                                 *****************
                                 * O   R   C   A *
                                 *****************

                                            #,                                       
                                            ###                                      
                                            ####                                     
                                            #####                                    
                                            ######                                   
                                           ########,                                 
                                     ,,################,,,,,                         
                               ,,#################################,,                 
                          ,,##########################################,,             
                       ,#########################################, ''#####,          
                    ,#############################################,,   '####,        
                  ,##################################################,,,,####,       
                ,###########''''           ''''###############################       
              ,#####''   ,,,,##########,,,,          '''####'''          '####       
            ,##' ,,,,###########################,,,                        '##       
           ' ,,###''''                  '''############,,,                           
         ,,##''                                '''############,,,,        ,,,,,,###''
      ,#''                                            '''#######################'''  
     '                                                          ''''####''''         
             ,#######,   #######,   ,#######,      ##                                
            ,#'     '#,  ##    ##  ,#'     '#,    #''#        ######   ,####,        
            ##       ##  ##   ,#'  ##            #'  '#       #        #'  '#        
            ##       ##  #######   ##           ,######,      #####,   #    #        
            '#,     ,#'  ##    ##  '#,     ,#' ,#      #,         ##   #,  ,#        
             '#######'   ##     ##  '#######'  #'      '#     #####' # '####'        



                  #######################################################
                  #                        -***-                        #
                  #          Department of theory and spectroscopy      #
                  #    Directorship and core code : Frank Neese         #
                  #        Max Planck Institute fuer Kohlenforschung    #
                  #                Kaiser Wilhelm Platz 1               #
                  #                 D-45470 Muelheim/Ruhr               #
                  #                      Germany                        #
                  #                                                     #
                  #                  All rights reserved                #
                  #                        -***-                        #
                  #######################################################


                         Program Version 5.0.3 -  RELEASE  -


 With contributions from (in alphabetic order):
   Daniel Aravena         : Magnetic Suceptibility
   Michael Atanasov       : Ab Initio Ligand Field Theory (pilot matlab implementation)
   Alexander A. Auer      : GIAO ZORA, VPT2 properties, NMR spectrum
   Ute Becker             : Parallelization
   Giovanni Bistoni       : ED, misc. LED, open-shell LED, HFLD
   Martin Brehm           : Molecular dynamics
   Dmytro Bykov           : SCF Hessian
   Vijay G. Chilkuri      : MRCI spin determinant printing, contributions to CSF-ICE
   Dipayan Datta          : RHF DLPNO-CCSD density
   Achintya Kumar Dutta   : EOM-CC, STEOM-CC
   Dmitry Ganyushin       : Spin-Orbit,Spin-Spin,Magnetic field MRCI
   Miquel Garcia          : C-PCM and meta-GGA Hessian, CC/C-PCM, Gaussian charge scheme
   Yang Guo               : DLPNO-NEVPT2, F12-NEVPT2, CIM, IAO-localization
   Andreas Hansen         : Spin unrestricted coupled pair/coupled cluster methods
   Benjamin Helmich-Paris : MC-RPA, TRAH-SCF, COSX integrals
   Lee Huntington         : MR-EOM, pCC
   Robert Izsak           : Overlap fitted RIJCOSX, COSX-SCS-MP3, EOM
   Marcus Kettner         : VPT2
   Christian Kollmar      : KDIIS, OOCD, Brueckner-CCSD(T), CCSD density, CASPT2, CASPT2-K
   Simone Kossmann        : Meta GGA functionals, TD-DFT gradient, OOMP2, MP2 Hessian
   Martin Krupicka        : Initial AUTO-CI
   Lucas Lang             : DCDCAS
   Marvin Lechner         : AUTO-CI (C++ implementation), FIC-MRCC
   Dagmar Lenk            : GEPOL surface, SMD
   Dimitrios Liakos       : Extrapolation schemes; Compound Job, initial MDCI parallelization
   Dimitrios Manganas     : Further ROCIS development; embedding schemes
   Dimitrios Pantazis     : SARC Basis sets
   Anastasios Papadopoulos: AUTO-CI, single reference methods and gradients
   Taras Petrenko         : DFT Hessian,TD-DFT gradient, ASA, ECA, R-Raman, ABS, FL, XAS/XES, NRVS
   Peter Pinski           : DLPNO-MP2, DLPNO-MP2 Gradient
   Christoph Reimann      : Effective Core Potentials
   Marius Retegan         : Local ZFS, SOC
   Christoph Riplinger    : Optimizer, TS searches, QM/MM, DLPNO-CCSD(T), (RO)-DLPNO pert. Triples
   Tobias Risthaus        : Range-separated hybrids, TD-DFT gradient, RPA, STAB
   Michael Roemelt        : Original ROCIS implementation
   Masaaki Saitow         : Open-shell DLPNO-CCSD energy and density
   Barbara Sandhoefer     : DKH picture change effects
   Avijit Sen             : IP-ROCIS
   Kantharuban Sivalingam : CASSCF convergence, NEVPT2, FIC-MRCI
   Bernardo de Souza      : ESD, SOC TD-DFT
   Georgi Stoychev        : AutoAux, RI-MP2 NMR, DLPNO-MP2 response
   Willem Van den Heuvel  : Paramagnetic NMR
   Boris Wezisla          : Elementary symmetry handling
   Frank Wennmohs         : Technical directorship


 We gratefully acknowledge several colleagues who have allowed us to
 interface, adapt or use parts of their codes:
   Stefan Grimme, W. Hujo, H. Kruse, P. Pracht,  : VdW corrections, initial TS optimization,
                  C. Bannwarth, S. Ehlert          DFT functionals, gCP, sTDA/sTD-DF
   Ed Valeev, F. Pavosevic, A. Kumar             : LibInt (2-el integral package), F12 methods
   Garnet Chan, S. Sharma, J. Yang, R. Olivares  : DMRG
   Ulf Ekstrom                                   : XCFun DFT Library
   Mihaly Kallay                                 : mrcc  (arbitrary order and MRCC methods)
   Jiri Pittner, Ondrej Demel                    : Mk-CCSD
   Frank Weinhold                                : gennbo (NPA and NBO analysis)
   Christopher J. Cramer and Donald G. Truhlar   : smd solvation model
   Lars Goerigk                                  : TD-DFT with DH, B97 family of functionals
   V. Asgeirsson, H. Jonsson                     : NEB implementation
   FAccTs GmbH                                   : IRC, NEB, NEB-TS, DLPNO-Multilevel, CI-OPT
                                                   MM, QMMM, 2- and 3-layer-ONIOM, Crystal-QMMM,
                                                   LR-CPCM, SF, NACMEs, symmetry and pop. for TD-DFT,
                                                   nearIR, NL-DFT gradient (VV10), updates on ESD,
                                                   ML-optimized integration grids
   S Lehtola, MJT Oliveira, MAL Marques          : LibXC Library
   Liviu Ungur et al                             : ANISO software


 Your calculation uses the libint2 library for the computation of 2-el integrals
 For citations please refer to: http://libint.valeyev.net

 Your ORCA version has been built with support for libXC version: 5.1.0
 For citations please refer to: https://tddft.org/programs/libxc/

 This ORCA versions uses:
   CBLAS   interface :  Fast vector & matrix operations
   LAPACKE interface :  Fast linear algebra routines
   SCALAPACK package :  Parallel linear algebra routines
   Shared memory     :  Shared parallel matrices
   BLAS/LAPACK       :  OpenBLAS 0.3.15  USE64BITINT DYNAMIC_ARCH NO_AFFINITY Sandybridge SINGLE_THREADED
        Core in use  :  Sandybridge
   Copyright (c) 2011-2014, The OpenBLAS Project


Your calculation utilizes the atom-pairwise dispersion correction
with the Becke-Johnson damping scheme (D3BJ)
Cite in your paper:
S.Grimme, S.Ehrlich, L.Goerigk, J Comput Chem, (2011), 32, 1456–1465 
S.Grimme, J.Antony, S.Ehrlich and H.Krieg, J.Chem.Phys., 132, (2010), 154104 
   

================================================================================

----- Orbital basis set information -----
Your calculation utilizes the basis: def2-TZVP
   F. Weigend and R. Ahlrichs, Phys. Chem. Chem. Phys. 7, 3297 (2005).

----- AuxJ basis set information -----
Your calculation utilizes the auxiliary basis: def2/J
   F. Weigend, Phys. Chem. Chem. Phys. 8, 1057 (2006).

================================================================================
                                        WARNINGS
                       Please study these warnings very carefully!
================================================================================

WARNING: Old DensityContainer found on disk!
         Will remove this file - 
         If you want to keep old densities, please start your calculation with a different basename. 


INFO   : the flag for use of the SHARK integral package has been found!

================================================================================
                                       INPUT FILE
================================================================================
NAME = water.inp
|  1> ! B3LYP D3 def2-TZVP def2/J RIJCOSX Opt Freq noautostart miniprint nopop
|  2> %maxcore  1000
|  3> %pal nprocs   8 end
|  4> * xyz   0   1
|  5> O      0.00000000    0.00000000   -0.11085125
|  6> H      0.00000000   -0.78383672    0.44340501
|  7> H      0.00000000    0.78383672    0.44340501
|  8>  *
|  9> 
| 10>                          ****END OF INPUT****
================================================================================

                       *****************************
                       * Geometry Optimization Run *
                       *****************************

Geometry optimization settings:
Update method            Update   .... BFGS
Choice of coordinates    CoordSys .... Z-matrix Internals
Initial Hessian          InHess   .... Almoef's Model

Convergence Tolerances:
Energy Change            TolE     ....  5.0000e-06 Eh
Max. Gradient            TolMAXG  ....  3.0000e-04 Eh/bohr
RMS Gradient             TolRMSG  ....  1.0000e-04 Eh/bohr
Max. Displacement        TolMAXD  ....  4.0000e-03 bohr
RMS Displacement         TolRMSD  ....  2.0000e-03 bohr
Strict Convergence                ....  False
------------------------------------------------------------------------------
                        ORCA OPTIMIZATION COORDINATE SETUP
------------------------------------------------------------------------------

The optimization will be done in new redundant internal coordinates
Making redundant internal coordinates   ...  (new redundants) done
Evaluating the initial hessian          ...  (Almloef) done
Evaluating the coordinates              ...  done
Calculating the B-matrix                .... done
Calculating the G-matrix                .... done
Diagonalizing the G-matrix              .... done
The first mode is                       ....    0
The number of degrees of freedom        ....    3

    -----------------------------------------------------------------
                    Redundant Internal Coordinates


    -----------------------------------------------------------------
         Definition                    Initial Value    Approx d2E/dq
    -----------------------------------------------------------------
      1. B(H   1,O   0)                  0.9600         0.519956   
      2. B(H   2,O   0)                  0.9600         0.519956   
      3. A(H   1,O   0,H   2)          109.4712         0.321834   
    -----------------------------------------------------------------

Number of atoms                         .... 3
Number of degrees of freedom            .... 3

         *************************************************************
         *                GEOMETRY OPTIMIZATION CYCLE   1            *
         *************************************************************
---------------------------------
CARTESIAN COORDINATES (ANGSTROEM)
---------------------------------
  O      0.000000    0.000000   -0.110851
  H      0.000000   -0.783837    0.443405
  H      0.000000    0.783837    0.443405

----------------------------
CARTESIAN COORDINATES (A.U.)
----------------------------
  NO LB      ZA    FRAG     MASS         X           Y           Z
   0 O     8.0000    0    15.999    0.000000    0.000000   -0.209479
   1 H     1.0000    0     1.008    0.000000   -1.481237    0.837914
   2 H     1.0000    0     1.008    0.000000    1.481237    0.837914



           ************************************************************
           *        Program running with 8 parallel MPI-processes     *
           *              working on a common directory               *
           ************************************************************
------------------------------------------------------------------------------
                   ___                                                        
                  /   \      - P O W E R E D   B Y -                         
                 /     \                                                     
                 |  |  |   _    _      __       _____    __    __             
                 |  |  |  | |  | |    /  \     |  _  \  |  |  /  |          
                  \  \/   | |  | |   /    \    | | | |  |  | /  /          
                 / \  \   | |__| |  /  /\  \   | |_| |  |  |/  /          
                |  |  |   |  __  | /  /__\  \  |    /   |      \           
                |  |  |   | |  | | |   __   |  |    \   |  |\   \          
                \     /   | |  | | |  |  |  |  | |\  \  |  | \   \       
                 \___/    |_|  |_| |__|  |__|  |_| \__\ |__|  \__/        
                                                                              
                      - O R C A' S   B I G   F R I E N D -                    
                                      &                                       
                       - I N T E G R A L  F E E D E R -                       
                                                                              
 v1 FN, 2020, v2 2021                                                         
------------------------------------------------------------------------------


Reading SHARK input file water.SHARKINP.tmp ... ok
----------------------
SHARK INTEGRAL PACKAGE
----------------------

Number of atoms                             ...      3
Number of basis functions                   ...     43
Number of shells                            ...     19
Maximum angular momentum                    ...      3
Integral batch strategy                     ... SHARK/LIBINT Hybrid
RI-J (if used) integral strategy            ... SPLIT-RIJ (Revised 2003 algorithm where possible)
Printlevel                                  ...      1
Contraction scheme used                     ... SEGMENTED contraction
Coulomb Range Separation                    ... NOT USED
Exchange Range Separation                   ... NOT USED
Finite Nucleus Model                        ... NOT USED
Auxiliary Coulomb fitting basis             ... AVAILABLE
   # of basis functions in Aux-J            ...     71
   # of shells in Aux-J                     ...     25
   Maximum angular momentum in Aux-J        ...      4
Auxiliary J/K fitting basis                 ... NOT available
Auxiliary Correlation fitting basis         ... NOT available
Auxiliary 'external' fitting basis          ... NOT available
Integral threshold                          ...     2.500000e-11
Primitive cut-off                           ...     2.500000e-12
Primitive pair pre-selection threshold      ...     2.500000e-12

Calculating pre-screening integrals         ... done (  0.0 sec) Dimension = 19
Organizing shell pair data                  ... done (  0.0 sec)
Shell pair information
Total number of shell pairs                 ...       190
Shell pairs after pre-screening             ...       190
Total number of primitive shell pairs       ...       556
Primitive shell pairs kept                  ...       535
          la=0 lb=0:     66 shell pairs
          la=1 lb=0:     55 shell pairs
          la=1 lb=1:     15 shell pairs
          la=2 lb=0:     22 shell pairs
          la=2 lb=1:     10 shell pairs
          la=2 lb=2:      3 shell pairs
          la=3 lb=0:     11 shell pairs
          la=3 lb=1:      5 shell pairs
          la=3 lb=2:      2 shell pairs
          la=3 lb=3:      1 shell pairs

Calculating one electron integrals          ... done (  0.0 sec)
Calculating RI/J V-Matrix + Cholesky decomp.... done (  0.0 sec)
Calculating Nuclear repulsion               ... done (  0.0 sec) ENN=      9.157175878272 Eh

SHARK setup successfully completed in   0.2 seconds

Maximum memory used throughout the entire GTOINT-calculation: 13.8 MB


           ************************************************************
           *        Program running with 8 parallel MPI-processes     *
           *              working on a common directory               *
           ************************************************************

Diagonalization of the overlap matrix:
Smallest eigenvalue                        ... 8.440e-03
Time for diagonalization                   ...    0.001 sec
Threshold for overlap eigenvalues          ... 1.000e-08
Number of eigenvalues below threshold      ... 0
Time for construction of square roots      ...    0.001 sec
Total time needed                          ...    0.002 sec

Time for model grid setup =    0.007 sec

Loading Hartree-Fock densities                     ... done
Calculating cut-offs                               ... done
Initializing the effective Hamiltonian             ... done
Setting up the integral package (SHARK)            ... done
Starting the Coulomb interaction                   ... done (   0.0 sec)
Reading the grid                                   ... done
Mapping shells                                     ... done
Starting the XC term evaluation                    ... done (   0.0 sec)
  promolecular density results
     # of electrons  =      9.999095967
     EX              =     -8.782123382
     EC              =     -0.334541151
     EX+EC           =     -9.116664533
Transforming the Hamiltonian                       ... done (   0.0 sec)
Diagonalizing the Hamiltonian                      ... done (   0.0 sec)
Back transforming the eigenvectors                 ... done (   0.0 sec)
Now organizing SCF variables                       ... done
-------------------
DFT GRID GENERATION
-------------------

General Integration Accuracy     IntAcc      ... 4.388
Radial Grid Type                 RadialGrid  ... OptM3 with GC (2021)
Angular Grid (max. ang.)         AngularGrid ... 4 (Lebedev-302)
Angular grid pruning method      GridPruning ... 4 (adaptive)
Weight generation scheme         WeightScheme... Becke
Basis function cutoff            BFCut       ... 1.0000e-11
Integration weight cutoff        WCut        ... 1.0000e-14
Angular grids for H and He will be reduced by one unit
Partially contracted basis set               ... off
Rotationally invariant grid construction     ... off

Total number of grid points                  ...    12750
Total number of batches                      ...      201
Average number of points per batch           ...       63
Average number of grid points per atom       ...     4250
Time for grid setup =    0.056 sec

--------------------
COSX GRID GENERATION
--------------------

GRIDX 1
-------
General Integration Accuracy     IntAcc      ... 3.816
Radial Grid Type                 RadialGrid  ... OptM3 with GC (2021)
Angular Grid (max. ang.)         AngularGrid ... 1 (Lebedev-50)
Angular grid pruning method      GridPruning ... 4 (adaptive)
Weight generation scheme         WeightScheme... Becke
Basis function cutoff            BFCut       ... 1.0000e-11
Integration weight cutoff        WCut        ... 1.0000e-14
Angular grids for H and He will be reduced by one unit
Partially contracted basis set               ... on
Rotationally invariant grid construction     ... off

Total number of grid points                  ...     1654
Total number of batches                      ...       27
Average number of points per batch           ...       61
Average number of grid points per atom       ...      551
UseSFitting                                  ... on

GRIDX 2
-------
General Integration Accuracy     IntAcc      ... 4.020
Radial Grid Type                 RadialGrid  ... OptM3 with GC (2021)
Angular Grid (max. ang.)         AngularGrid ... 2 (Lebedev-110)
Angular grid pruning method      GridPruning ... 4 (adaptive)
Weight generation scheme         WeightScheme... Becke
Basis function cutoff            BFCut       ... 1.0000e-11
Integration weight cutoff        WCut        ... 1.0000e-14
Angular grids for H and He will be reduced by one unit
Partially contracted basis set               ... on
Rotationally invariant grid construction     ... off

Total number of grid points                  ...     3508
Total number of batches                      ...       56
Average number of points per batch           ...       62
Average number of grid points per atom       ...     1169
UseSFitting                                  ... on

GRIDX 3
-------
General Integration Accuracy     IntAcc      ... 4.338
Radial Grid Type                 RadialGrid  ... OptM3 with GC (2021)
Angular Grid (max. ang.)         AngularGrid ... 3 (Lebedev-194)
Angular grid pruning method      GridPruning ... 4 (adaptive)
Weight generation scheme         WeightScheme... Becke
Basis function cutoff            BFCut       ... 1.0000e-11
Integration weight cutoff        WCut        ... 1.0000e-14
Angular grids for H and He will be reduced by one unit
Partially contracted basis set               ... on
Rotationally invariant grid construction     ... off

Total number of grid points                  ...     7762
Total number of batches                      ...      122
Average number of points per batch           ...       63
Average number of grid points per atom       ...     2587
UseSFitting                                  ... on

Time for X-Grid setup             =    0.042 sec

--------------
SCF ITERATIONS
--------------
ITER       Energy         Delta-E        Max-DP      RMS-DP      [F,P]     Damp
               ***  Starting incremental Fock matrix formation  ***
  0    -76.3204757408   0.000000000000 0.06415813  0.00404735  0.3483493 0.7000
  1    -76.3734561806  -0.052980439821 0.03672308  0.00235431  0.1363006 0.7000
                               ***Turning on DIIS***
  2    -76.3897007945  -0.016244613893 0.02813437  0.00251059  0.0262918 0.0000
  3    -76.4202360629  -0.030535268415 0.02552113  0.00144892  0.0826387 0.0000
  4    -76.4255188155  -0.005282752548 0.00517738  0.00033148  0.0117317 0.0000
                      *** Initiating the SOSCF procedure ***
                           *** Shutting down DIIS ***
                      *** Re-Reading the Fockian *** 
                      *** Removing any level shift *** 
ITER      Energy       Delta-E        Grad      Rot      Max-DP    RMS-DP
  5    -76.42565721  -0.0001383955  0.000584  0.000584  0.000945  0.000077
               *** Restarting incremental Fock matrix formation ***
  6    -76.42565620   0.0000010145  0.000240  0.000604  0.000622  0.000042
  7    -76.42565652  -0.0000003211  0.000099  0.000132  0.000144  0.000013
  8    -76.42565651   0.0000000029  0.000098  0.000094  0.000106  0.000008
  9    -76.42565657  -0.0000000524  0.000003  0.000002  0.000002  0.000000
                 **** Energy Check signals convergence ****
              ***Rediagonalizing the Fockian in SOSCF/NRSCF***

               *****************************************************
               *                     SUCCESS                       *
               *           SCF CONVERGED AFTER  10 CYCLES          *
               *****************************************************

Old exchange energy                            =     -1.786322608 Eh
New exchange energy                            =     -1.786315762 Eh
Exchange energy change after final integration =      0.000006846 Eh
Total energy after final integration           =    -76.425649721 Eh
Final COS-X integration done in                =     0.077 sec
Total Energy       :          -76.42564972 Eh           -2079.64766 eV
  Last Energy change         ...   -1.4680e-11  Tolerance :   1.0000e-08
  Last MAX-Density change    ...    8.8818e-16  Tolerance :   1.0000e-07
             **** THE GBW FILE WAS UPDATED (water.gbw) ****
             **** DENSITY water.scfp WAS UPDATED ****
             **** ENERGY FILE WAS UPDATED (water.en.tmp) ****
             **** THE GBW FILE WAS UPDATED (water.gbw) ****
             **** DENSITY water.scfp WAS UPDATED ****
----------------
ORBITAL ENERGIES
----------------

  NO   OCC          E(Eh)            E(eV) 
   0   2.0000     -19.121554      -520.3239 
   1   2.0000      -1.008753       -27.4496 
   2   2.0000      -0.540244       -14.7008 
   3   2.0000      -0.379502       -10.3268 
   4   2.0000      -0.312200        -8.4954 
   5   0.0000       0.017598         0.4789 
   6   0.0000       0.091893         2.5005 
   7   0.0000       0.367957        10.0126 
   8   0.0000       0.398590        10.8462 
   9   0.0000       0.428161        11.6509 
  10   0.0000       0.435400        11.8478 
  11   0.0000       0.571929        15.5630 
  12   0.0000       0.595506        16.2045 
  13   0.0000       1.181325        32.1455 
  14   0.0000       1.201495        32.6943 
  15   0.0000       1.311808        35.6961 
  16   0.0000       1.521965        41.4148 
  17   0.0000       1.615333        43.9554 
  18   0.0000       1.727230        47.0003 
  19   0.0000       1.968372        53.5621 
  20   0.0000       2.030379        55.2494 
  21   0.0000       2.127337        57.8878 
  22   0.0000       2.272969        61.8506 
  23   0.0000       2.426841        66.0377 
  24   0.0000       2.571293        69.9684 
  25   0.0000       2.603981        70.8579 
  26   0.0000       2.613968        71.1297 
  27   0.0000       2.776548        75.5537 
  28   0.0000       3.592361        97.7531 
  29   0.0000       3.947387       107.4139 
  30   0.0000       5.104538       138.9015 
  31   0.0000       5.182080       141.0116 
  32   0.0000       5.389380       146.6525 
  33   0.0000       5.390097       146.6720 
  34   0.0000       5.519292       150.1876 
  35   0.0000       5.999946       163.2668 
  36   0.0000       6.220379       169.2651 
  37   0.0000       6.290892       171.1839 
  38   0.0000       6.375043       173.4737 
  39   0.0000       6.381199       173.6412 
  40   0.0000       6.937892       188.7896 
  41   0.0000       6.962900       189.4701 
  42   0.0000      43.229607      1176.3374 
Total SCF time: 0 days 0 hours 0 min 1 sec 

Maximum memory used throughout the entire SCF-calculation: 57.6 MB


-------------------------------------------------------------------------------
                          DFT DISPERSION CORRECTION                            
                                                                               
                              DFTD3 V3.1  Rev 1                                
                          USING Becke-Johnson damping                          
-------------------------------------------------------------------------------
-------------------------   ----------------
Dispersion correction           -0.000573582
-------------------------   ----------------


-------------------------   --------------------
FINAL SINGLE POINT ENERGY       -76.426223303517
-------------------------   --------------------



           ************************************************************
           *        Program running with 8 parallel MPI-processes     *
           *              working on a common directory               *
           ************************************************************
------------------------------------------------------------------------------
                         ORCA SCF GRADIENT CALCULATION
------------------------------------------------------------------------------

 ... reading COSX grid (gridx3)
Gradient of the Kohn-Sham DFT energy:
Kohn-Sham wavefunction type      ... RKS
Hartree-Fock exchange scaling    ...    0.200
Number of operators              ...    1
Number of atoms                  ...    3
Basis set dimensions             ...   43
Integral neglect threshold       ... 2.5e-11
Integral primitive cutoff        ... 2.5e-12
SHARK Integral package           ... ON

Nuc. rep. gradient       (SHARK) ... done (  0.0 sec)
HCore & Overlap gradient (SHARK) ... done (  0.0 sec)
RI-J gradient            (SHARK) ... done (  0.1 sec)
COSX-gradient                    ... done (  0.1 sec)
Exchange-correlation gradient    ... done
Dispersion correction            ... done

------------------
CARTESIAN GRADIENT
------------------

   1   O   :   -0.000000020   -0.000000037    0.010338428
   2   H   :   -0.000000000   -0.002869635   -0.005248518
   3   H   :   -0.000000000    0.002869655   -0.005248541

Difference to translation invariance:
           :   -0.0000000201   -0.0000000167   -0.0001586314

Difference to rotation invariance:
           :   -0.0000000570    0.0000000037    0.0000000001

Norm of the cartesian gradient     ...    0.0133584032
RMS gradient                       ...    0.0044528011
MAX gradient                       ...    0.0103384276

-------
TIMINGS
-------

Total SCF gradient time            ...        0.428 sec

One electron gradient       ....       0.003 sec  (  0.7%)
RI-J Coulomb gradient       ....       0.063 sec  ( 14.7%)
COSX gradient               ....       0.100 sec  ( 23.5%)
XC gradient                 ....       0.033 sec  (  7.6%)

Maximum memory used throughout the entire SCFGRAD-calculation: 32.9 MB
------------------------------------------------------------------------------
                         ORCA GEOMETRY RELAXATION STEP
------------------------------------------------------------------------------

Reading the OPT-File                    .... done
Getting information on internals        .... done
Copying old internal coords+grads       .... done
Making the new internal coordinates     .... (new redundants).... done
Validating the new internal coordinates .... (new redundants).... done
Calculating the B-matrix                .... done
Calculating the G,G- and P matrices     .... done
Transforming gradient to internals      .... done
Projecting the internal gradient        .... done
Number of atoms                         ....   3
Number of internal coordinates          ....   3
Current Energy                          ....   -76.426223304 Eh
Current gradient norm                   ....     0.013358403 Eh/bohr
Maximum allowed component of the step   ....  0.300
Current trust radius                    ....  0.300
Evaluating the initial hessian          ....  (Almloef) done
Projecting the Hessian                  .... done
Forming the augmented Hessian           .... done
Diagonalizing the augmented Hessian     .... done
Last element of RFO vector              ....  0.999447241
Lowest eigenvalues of augmented Hessian:
 -0.000357114  0.322189268  0.519956171
Length of the computed step             ....  0.033263118
The final length of the internal step   ....  0.033263118
Converting the step to cartesian space:
 Initial RMS(Int)=    0.0192044700
Transforming coordinates:
 Iter   0:  RMS(Cart)=    0.0103454868 RMS(Int)=    0.0192014438
 Iter   1:  RMS(Cart)=    0.0001081610 RMS(Int)=    0.0002045349
 Iter   2:  RMS(Cart)=    0.0000013734 RMS(Int)=    0.0000026504
 Iter   3:  RMS(Cart)=    0.0000000304 RMS(Int)=    0.0000000562
done
Storing new coordinates                 .... done

                                .--------------------.
          ----------------------|Geometry convergence|-------------------------
          Item                value                   Tolerance       Converged
          ---------------------------------------------------------------------
          RMS gradient        0.0062018118            0.0001000000      NO
          MAX gradient        0.0107016361            0.0003000000      NO
          RMS step            0.0192044700            0.0020000000      NO
          MAX step            0.0332152000            0.0040000000      NO
          ........................................................
          Max(Bonds)      0.0007      Max(Angles)    1.90
          Max(Dihed)        0.00      Max(Improp)    0.00
          ---------------------------------------------------------------------

The optimization has not yet converged - more geometry cycles are needed


    ---------------------------------------------------------------------------
                         Redundant Internal Coordinates
                            (Angstroem and degrees)

        Definition                    Value    dE/dq     Step     New-Value
    ----------------------------------------------------------------------------
     1. B(H   1,O   0)                0.9600 -0.000657  0.0007    0.9607   
     2. B(H   2,O   0)                0.9600 -0.000657  0.0007    0.9607   
     3. A(H   1,O   0,H   2)          109.47  0.010702   -1.90    107.57   
    ----------------------------------------------------------------------------

         *************************************************************
         *                GEOMETRY OPTIMIZATION CYCLE   2            *
         *************************************************************
---------------------------------
CARTESIAN COORDINATES (ANGSTROEM)
---------------------------------
  O      0.000000    0.000000   -0.119741
  H      0.000000   -0.775063    0.447850
  H      0.000000    0.775063    0.447850

----------------------------
CARTESIAN COORDINATES (A.U.)
----------------------------
  NO LB      ZA    FRAG     MASS         X           Y           Z
   0 O     8.0000    0    15.999    0.000000    0.000000   -0.226278
   1 H     1.0000    0     1.008    0.000000   -1.464657    0.846314
   2 H     1.0000    0     1.008    0.000000    1.464657    0.846314

--------------------------------
INTERNAL COORDINATES (ANGSTROEM)
--------------------------------
 O      0   0   0     0.000000000000     0.00000000     0.00000000
 H      1   0   0     0.960667858884     0.00000000     0.00000000
 H      1   2   0     0.960667831343   107.56812993     0.00000000

---------------------------
INTERNAL COORDINATES (A.U.)
---------------------------
 O      0   0   0     0.000000000000     0.00000000     0.00000000
 H      1   0   0     1.815399158951     0.00000000     0.00000000
 H      1   2   0     1.815399106906   107.56812993     0.00000000



           ************************************************************
           *        Program running with 8 parallel MPI-processes     *
           *              working on a common directory               *
           ************************************************************
------------------------------------------------------------------------------
                   ___                                                        
                  /   \      - P O W E R E D   B Y -                         
                 /     \                                                     
                 |  |  |   _    _      __       _____    __    __             
                 |  |  |  | |  | |    /  \     |  _  \  |  |  /  |          
                  \  \/   | |  | |   /    \    | | | |  |  | /  /          
                 / \  \   | |__| |  /  /\  \   | |_| |  |  |/  /          
                |  |  |   |  __  | /  /__\  \  |    /   |      \           
                |  |  |   | |  | | |   __   |  |    \   |  |\   \          
                \     /   | |  | | |  |  |  |  | |\  \  |  | \   \       
                 \___/    |_|  |_| |__|  |__|  |_| \__\ |__|  \__/        
                                                                              
                      - O R C A' S   B I G   F R I E N D -                    
                                      &                                       
                       - I N T E G R A L  F E E D E R -                       
                                                                              
 v1 FN, 2020, v2 2021                                                         
------------------------------------------------------------------------------


Reading SHARK input file water.SHARKINP.tmp ... ok
----------------------
SHARK INTEGRAL PACKAGE
----------------------

Number of atoms                             ...      3
Number of basis functions                   ...     43
Number of shells                            ...     19
Maximum angular momentum                    ...      3
Integral batch strategy                     ... SHARK/LIBINT Hybrid
RI-J (if used) integral strategy            ... SPLIT-RIJ (Revised 2003 algorithm where possible)
Printlevel                                  ...      1
Contraction scheme used                     ... SEGMENTED contraction
Coulomb Range Separation                    ... NOT USED
Exchange Range Separation                   ... NOT USED
Finite Nucleus Model                        ... NOT USED
Auxiliary Coulomb fitting basis             ... AVAILABLE
   # of basis functions in Aux-J            ...     71
   # of shells in Aux-J                     ...     25
   Maximum angular momentum in Aux-J        ...      4
Auxiliary J/K fitting basis                 ... NOT available
Auxiliary Correlation fitting basis         ... NOT available
Auxiliary 'external' fitting basis          ... NOT available
Integral threshold                          ...     2.500000e-11
Primitive cut-off                           ...     2.500000e-12
Primitive pair pre-selection threshold      ...     2.500000e-12

Calculating pre-screening integrals         ... done (  0.0 sec) Dimension = 19
Organizing shell pair data                  ... done (  0.0 sec)
Shell pair information
Total number of shell pairs                 ...       190
Shell pairs after pre-screening             ...       190
Total number of primitive shell pairs       ...       556
Primitive shell pairs kept                  ...       535
          la=0 lb=0:     66 shell pairs
          la=1 lb=0:     55 shell pairs
          la=1 lb=1:     15 shell pairs
          la=2 lb=0:     22 shell pairs
          la=2 lb=1:     10 shell pairs
          la=2 lb=2:      3 shell pairs
          la=3 lb=0:     11 shell pairs
          la=3 lb=1:      5 shell pairs
          la=3 lb=2:      2 shell pairs
          la=3 lb=3:      1 shell pairs

Calculating one electron integrals          ... done (  0.0 sec)
Calculating RI/J V-Matrix + Cholesky decomp.... done (  0.0 sec)
Calculating Nuclear repulsion               ... done (  0.0 sec) ENN=      9.154865742500 Eh

SHARK setup successfully completed in   0.2 seconds

Maximum memory used throughout the entire GTOINT-calculation: 13.8 MB


           ************************************************************
           *        Program running with 8 parallel MPI-processes     *
           *              working on a common directory               *
           ************************************************************

Diagonalization of the overlap matrix:
Smallest eigenvalue                        ... 8.451e-03
Time for diagonalization                   ...    0.001 sec
Threshold for overlap eigenvalues          ... 1.000e-08
Number of eigenvalues below threshold      ... 0
Time for construction of square roots      ...    0.001 sec
Total time needed                          ...    0.002 sec

-------------------
DFT GRID GENERATION
-------------------

General Integration Accuracy     IntAcc      ... 4.388
Radial Grid Type                 RadialGrid  ... OptM3 with GC (2021)
Angular Grid (max. ang.)         AngularGrid ... 4 (Lebedev-302)
Angular grid pruning method      GridPruning ... 4 (adaptive)
Weight generation scheme         WeightScheme... Becke
Basis function cutoff            BFCut       ... 1.0000e-11
Integration weight cutoff        WCut        ... 1.0000e-14
Angular grids for H and He will be reduced by one unit
Partially contracted basis set               ... off
Rotationally invariant grid construction     ... off

Total number of grid points                  ...    12752
Total number of batches                      ...      202
Average number of points per batch           ...       63
Average number of grid points per atom       ...     4251
Time for grid setup =    0.049 sec

--------------------
COSX GRID GENERATION
--------------------

GRIDX 1
-------
General Integration Accuracy     IntAcc      ... 3.816
Radial Grid Type                 RadialGrid  ... OptM3 with GC (2021)
Angular Grid (max. ang.)         AngularGrid ... 1 (Lebedev-50)
Angular grid pruning method      GridPruning ... 4 (adaptive)
Weight generation scheme         WeightScheme... Becke
Basis function cutoff            BFCut       ... 1.0000e-11
Integration weight cutoff        WCut        ... 1.0000e-14
Angular grids for H and He will be reduced by one unit
Partially contracted basis set               ... on
Rotationally invariant grid construction     ... off

Total number of grid points                  ...     1654
Total number of batches                      ...       27
Average number of points per batch           ...       61
Average number of grid points per atom       ...      551
UseSFitting                                  ... on

GRIDX 2
-------
General Integration Accuracy     IntAcc      ... 4.020
Radial Grid Type                 RadialGrid  ... OptM3 with GC (2021)
Angular Grid (max. ang.)         AngularGrid ... 2 (Lebedev-110)
Angular grid pruning method      GridPruning ... 4 (adaptive)
Weight generation scheme         WeightScheme... Becke
Basis function cutoff            BFCut       ... 1.0000e-11
Integration weight cutoff        WCut        ... 1.0000e-14
Angular grids for H and He will be reduced by one unit
Partially contracted basis set               ... on
Rotationally invariant grid construction     ... off

Total number of grid points                  ...     3506
Total number of batches                      ...       56
Average number of points per batch           ...       62
Average number of grid points per atom       ...     1169
UseSFitting                                  ... on

GRIDX 3
-------
General Integration Accuracy     IntAcc      ... 4.338
Radial Grid Type                 RadialGrid  ... OptM3 with GC (2021)
Angular Grid (max. ang.)         AngularGrid ... 3 (Lebedev-194)
Angular grid pruning method      GridPruning ... 4 (adaptive)
Weight generation scheme         WeightScheme... Becke
Basis function cutoff            BFCut       ... 1.0000e-11
Integration weight cutoff        WCut        ... 1.0000e-14
Angular grids for H and He will be reduced by one unit
Partially contracted basis set               ... on
Rotationally invariant grid construction     ... off

Total number of grid points                  ...     7776
Total number of batches                      ...      123
Average number of points per batch           ...       63
Average number of grid points per atom       ...     2592
UseSFitting                                  ... on

Time for X-Grid setup             =    0.042 sec

--------------
SCF ITERATIONS
--------------
ITER       Energy         Delta-E        Max-DP      RMS-DP      [F,P]     Damp
               ***  Starting incremental Fock matrix formation  ***
                      *** Initiating the SOSCF procedure ***
                      *** Re-Reading the Fockian *** 
                      *** Removing any level shift *** 
ITER      Energy       Delta-E        Grad      Rot      Max-DP    RMS-DP
  0    -76.42590245 -76.4259024477  0.002169  0.002169  0.002469  0.000210
               *** Restarting incremental Fock matrix formation ***
  1    -76.42594109  -0.0000386374  0.000710  0.000904  0.001250  0.000088
  2    -76.42594340  -0.0000023186  0.000168  0.000262  0.000474  0.000030
  3    -76.42594332   0.0000000842  0.000204  0.000136  0.000249  0.000016
  4    -76.42594356  -0.0000002401  0.000011  0.000007  0.000006  0.000001
                 **** Energy Check signals convergence ****
              ***Rediagonalizing the Fockian in SOSCF/NRSCF***

               *****************************************************
               *                     SUCCESS                       *
               *           SCF CONVERGED AFTER   5 CYCLES          *
               *****************************************************

Old exchange energy                            =     -1.786228873 Eh
New exchange energy                            =     -1.786215640 Eh
Exchange energy change after final integration =      0.000013233 Eh
Total energy after final integration           =    -76.425930327 Eh
Final COS-X integration done in                =     0.073 sec
Total Energy       :          -76.42593033 Eh           -2079.65529 eV
  Last Energy change         ...   -1.6622e-10  Tolerance :   1.0000e-08
  Last MAX-Density change    ...    7.7716e-16  Tolerance :   1.0000e-07
             **** THE GBW FILE WAS UPDATED (water.gbw) ****
             **** DENSITY water.scfp WAS UPDATED ****
             **** ENERGY FILE WAS UPDATED (water.en.tmp) ****
             **** THE GBW FILE WAS UPDATED (water.gbw) ****
             **** DENSITY water.scfp WAS UPDATED ****
Total SCF time: 0 days 0 hours 0 min 0 sec 

Maximum memory used throughout the entire SCF-calculation: 57.6 MB


-------------------------------------------------------------------------------
                          DFT DISPERSION CORRECTION                            
                                                                               
                              DFTD3 V3.1  Rev 1                                
                          USING Becke-Johnson damping                          
-------------------------------------------------------------------------------
-------------------------   ----------------
Dispersion correction           -0.000573696
-------------------------   ----------------


-------------------------   --------------------
FINAL SINGLE POINT ENERGY       -76.426504023458
-------------------------   --------------------



           ************************************************************
           *        Program running with 8 parallel MPI-processes     *
           *              working on a common directory               *
           ************************************************************
------------------------------------------------------------------------------
                         ORCA SCF GRADIENT CALCULATION
------------------------------------------------------------------------------

 ... reading COSX grid (gridx3)
Gradient of the Kohn-Sham DFT energy:
Kohn-Sham wavefunction type      ... RKS
Hartree-Fock exchange scaling    ...    0.200
Number of operators              ...    1
Number of atoms                  ...    3
Basis set dimensions             ...   43
Integral neglect threshold       ... 2.5e-11
Integral primitive cutoff        ... 2.5e-12
SHARK Integral package           ... ON

Nuc. rep. gradient       (SHARK) ... done (  0.0 sec)
HCore & Overlap gradient (SHARK) ... done (  0.0 sec)
RI-J gradient            (SHARK) ... done (  0.1 sec)
COSX-gradient                    ... done (  0.1 sec)
Exchange-correlation gradient    ... done
Dispersion correction            ... done

------------------
CARTESIAN GRADIENT
------------------

   1   O   :   -0.000000021    0.000000012    0.006312776
   2   H   :   -0.000000000   -0.001127605   -0.003239641
   3   H   :   -0.000000000    0.001127566   -0.003239646

Difference to translation invariance:
           :   -0.0000000215   -0.0000000275   -0.0001665104

Difference to rotation invariance:
           :    0.0000000286    0.0000000048    0.0000000001

Norm of the cartesian gradient     ...    0.0079614458
RMS gradient                       ...    0.0026538153
MAX gradient                       ...    0.0063127763

-------
TIMINGS
-------

Total SCF gradient time            ...        0.459 sec

One electron gradient       ....       0.002 sec  (  0.5%)
RI-J Coulomb gradient       ....       0.072 sec  ( 15.6%)
COSX gradient               ....       0.102 sec  ( 22.1%)
XC gradient                 ....       0.037 sec  (  8.0%)

Maximum memory used throughout the entire SCFGRAD-calculation: 32.9 MB
------------------------------------------------------------------------------
                         ORCA GEOMETRY RELAXATION STEP
------------------------------------------------------------------------------

Reading the OPT-File                    .... done
Getting information on internals        .... done
Copying old internal coords+grads       .... done
Making the new internal coordinates     .... (new redundants).... done
Validating the new internal coordinates .... (new redundants).... done
Calculating the B-matrix                .... done
Calculating the G,G- and P matrices     .... done
Transforming gradient to internals      .... done
Projecting the internal gradient        .... done
Number of atoms                         ....   3
Number of internal coordinates          ....   3
Current Energy                          ....   -76.426504023 Eh
Current gradient norm                   ....     0.007961446 Eh/bohr
Maximum allowed component of the step   ....  0.300
Current trust radius                    ....  0.300
Updating the Hessian (BFGS)             .... done
Forming the augmented Hessian           .... done
Diagonalizing the augmented Hessian     .... done
Last element of RFO vector              ....  0.999127174
Lowest eigenvalues of augmented Hessian:
 -0.000251215  0.143303373  0.519956171
Length of the computed step             ....  0.041808375
The final length of the internal step   ....  0.041808375
Converting the step to cartesian space:
 Initial RMS(Int)=    0.0241380767
Transforming coordinates:
 Iter   0:  RMS(Cart)=    0.0125788866 RMS(Int)=    0.0241272537
 Iter   1:  RMS(Cart)=    0.0001781410 RMS(Int)=    0.0003212725
 Iter   2:  RMS(Cart)=    0.0000024612 RMS(Int)=    0.0000051961
 Iter   3:  RMS(Cart)=    0.0000000787 RMS(Int)=    0.0000001358
done
Storing new coordinates                 .... done

                                .--------------------.
          ----------------------|Geometry convergence|-------------------------
          Item                value                   Tolerance       Converged
          ---------------------------------------------------------------------
          Energy change      -0.0002807199            0.0000050000      NO
          RMS gradient        0.0034823974            0.0001000000      NO
          MAX gradient        0.0058731117            0.0003000000      NO
          RMS step            0.0241380767            0.0020000000      NO
          MAX step            0.0413844145            0.0040000000      NO
          ........................................................
          Max(Bonds)      0.0022      Max(Angles)    2.37
          Max(Dihed)        0.00      Max(Improp)    0.00
          ---------------------------------------------------------------------

The optimization has not yet converged - more geometry cycles are needed


    ---------------------------------------------------------------------------
                         Redundant Internal Coordinates
                            (Angstroem and degrees)

        Definition                    Value    dE/dq     Step     New-Value
    ----------------------------------------------------------------------------
     1. B(H   1,O   0)                0.9607 -0.000972  0.0022    0.9629   
     2. B(H   2,O   0)                0.9607 -0.000972  0.0022    0.9629   
     3. A(H   1,O   0,H   2)          107.57  0.005873   -2.37    105.20   
    ----------------------------------------------------------------------------

         *************************************************************
         *                GEOMETRY OPTIMIZATION CYCLE   3            *
         *************************************************************
---------------------------------
CARTESIAN COORDINATES (ANGSTROEM)
---------------------------------
  O      0.000000   -0.000000   -0.131251
  H      0.000000   -0.764919    0.453605
  H      0.000000    0.764919    0.453605

----------------------------
CARTESIAN COORDINATES (A.U.)
----------------------------
  NO LB      ZA    FRAG     MASS         X           Y           Z
   0 O     8.0000    0    15.999    0.000000   -0.000000   -0.248029
   1 H     1.0000    0     1.008    0.000000   -1.445487    0.857189
   2 H     1.0000    0     1.008    0.000000    1.445487    0.857189

--------------------------------
INTERNAL COORDINATES (ANGSTROEM)
--------------------------------
 O      0   0   0     0.000000000000     0.00000000     0.00000000
 H      1   0   0     0.962890075569     0.00000000     0.00000000
 H      1   2   0     0.962890102023   105.19697784     0.00000000

---------------------------
INTERNAL COORDINATES (A.U.)
---------------------------
 O      0   0   0     0.000000000000     0.00000000     0.00000000
 H      1   0   0     1.819598539897     0.00000000     0.00000000
 H      1   2   0     1.819598589888   105.19697784     0.00000000



           ************************************************************
           *        Program running with 8 parallel MPI-processes     *
           *              working on a common directory               *
           ************************************************************
------------------------------------------------------------------------------
                   ___                                                        
                  /   \      - P O W E R E D   B Y -                         
                 /     \                                                     
                 |  |  |   _    _      __       _____    __    __             
                 |  |  |  | |  | |    /  \     |  _  \  |  |  /  |          
                  \  \/   | |  | |   /    \    | | | |  |  | /  /          
                 / \  \   | |__| |  /  /\  \   | |_| |  |  |/  /          
                |  |  |   |  __  | /  /__\  \  |    /   |      \           
                |  |  |   | |  | | |   __   |  |    \   |  |\   \          
                \     /   | |  | | |  |  |  |  | |\  \  |  | \   \       
                 \___/    |_|  |_| |__|  |__|  |_| \__\ |__|  \__/        
                                                                              
                      - O R C A' S   B I G   F R I E N D -                    
                                      &                                       
                       - I N T E G R A L  F E E D E R -                       
                                                                              
 v1 FN, 2020, v2 2021                                                         
------------------------------------------------------------------------------


Reading SHARK input file water.SHARKINP.tmp ... ok
----------------------
SHARK INTEGRAL PACKAGE
----------------------

Number of atoms                             ...      3
Number of basis functions                   ...     43
Number of shells                            ...     19
Maximum angular momentum                    ...      3
Integral batch strategy                     ... SHARK/LIBINT Hybrid
RI-J (if used) integral strategy            ... SPLIT-RIJ (Revised 2003 algorithm where possible)
Printlevel                                  ...      1
Contraction scheme used                     ... SEGMENTED contraction
Coulomb Range Separation                    ... NOT USED
Exchange Range Separation                   ... NOT USED
Finite Nucleus Model                        ... NOT USED
Auxiliary Coulomb fitting basis             ... AVAILABLE
   # of basis functions in Aux-J            ...     71
   # of shells in Aux-J                     ...     25
   Maximum angular momentum in Aux-J        ...      4
Auxiliary J/K fitting basis                 ... NOT available
Auxiliary Correlation fitting basis         ... NOT available
Auxiliary 'external' fitting basis          ... NOT available
Integral threshold                          ...     2.500000e-11
Primitive cut-off                           ...     2.500000e-12
Primitive pair pre-selection threshold      ...     2.500000e-12

Calculating pre-screening integrals         ... done (  0.1 sec) Dimension = 19
Organizing shell pair data                  ... done (  0.0 sec)
Shell pair information
Total number of shell pairs                 ...       190
Shell pairs after pre-screening             ...       190
Total number of primitive shell pairs       ...       556
Primitive shell pairs kept                  ...       535
          la=0 lb=0:     66 shell pairs
          la=1 lb=0:     55 shell pairs
          la=1 lb=1:     15 shell pairs
          la=2 lb=0:     22 shell pairs
          la=2 lb=1:     10 shell pairs
          la=2 lb=2:      3 shell pairs
          la=3 lb=0:     11 shell pairs
          la=3 lb=1:      5 shell pairs
          la=3 lb=2:      2 shell pairs
          la=3 lb=3:      1 shell pairs

Calculating one electron integrals          ... done (  0.0 sec)
Calculating RI/J V-Matrix + Cholesky decomp.... done (  0.0 sec)
Calculating Nuclear repulsion               ... done (  0.0 sec) ENN=      9.139052574326 Eh

SHARK setup successfully completed in   0.2 seconds

Maximum memory used throughout the entire GTOINT-calculation: 13.8 MB


           ************************************************************
           *        Program running with 8 parallel MPI-processes     *
           *              working on a common directory               *
           ************************************************************

Diagonalization of the overlap matrix:
Smallest eigenvalue                        ... 8.510e-03
Time for diagonalization                   ...    0.001 sec
Threshold for overlap eigenvalues          ... 1.000e-08
Number of eigenvalues below threshold      ... 0
Time for construction of square roots      ...    0.001 sec
Total time needed                          ...    0.002 sec

-------------------
DFT GRID GENERATION
-------------------

General Integration Accuracy     IntAcc      ... 4.388
Radial Grid Type                 RadialGrid  ... OptM3 with GC (2021)
Angular Grid (max. ang.)         AngularGrid ... 4 (Lebedev-302)
Angular grid pruning method      GridPruning ... 4 (adaptive)
Weight generation scheme         WeightScheme... Becke
Basis function cutoff            BFCut       ... 1.0000e-11
Integration weight cutoff        WCut        ... 1.0000e-14
Angular grids for H and He will be reduced by one unit
Partially contracted basis set               ... off
Rotationally invariant grid construction     ... off

Total number of grid points                  ...    12756
Total number of batches                      ...      201
Average number of points per batch           ...       63
Average number of grid points per atom       ...     4252
Time for grid setup =    0.063 sec

--------------------
COSX GRID GENERATION
--------------------

GRIDX 1
-------
General Integration Accuracy     IntAcc      ... 3.816
Radial Grid Type                 RadialGrid  ... OptM3 with GC (2021)
Angular Grid (max. ang.)         AngularGrid ... 1 (Lebedev-50)
Angular grid pruning method      GridPruning ... 4 (adaptive)
Weight generation scheme         WeightScheme... Becke
Basis function cutoff            BFCut       ... 1.0000e-11
Integration weight cutoff        WCut        ... 1.0000e-14
Angular grids for H and He will be reduced by one unit
Partially contracted basis set               ... on
Rotationally invariant grid construction     ... off

Total number of grid points                  ...     1652
Total number of batches                      ...       27
Average number of points per batch           ...       61
Average number of grid points per atom       ...      551
UseSFitting                                  ... on

GRIDX 2
-------
General Integration Accuracy     IntAcc      ... 4.020
Radial Grid Type                 RadialGrid  ... OptM3 with GC (2021)
Angular Grid (max. ang.)         AngularGrid ... 2 (Lebedev-110)
Angular grid pruning method      GridPruning ... 4 (adaptive)
Weight generation scheme         WeightScheme... Becke
Basis function cutoff            BFCut       ... 1.0000e-11
Integration weight cutoff        WCut        ... 1.0000e-14
Angular grids for H and He will be reduced by one unit
Partially contracted basis set               ... on
Rotationally invariant grid construction     ... off

Total number of grid points                  ...     3502
Total number of batches                      ...       56
Average number of points per batch           ...       62
Average number of grid points per atom       ...     1167
UseSFitting                                  ... on

GRIDX 3
-------
General Integration Accuracy     IntAcc      ... 4.338
Radial Grid Type                 RadialGrid  ... OptM3 with GC (2021)
Angular Grid (max. ang.)         AngularGrid ... 3 (Lebedev-194)
Angular grid pruning method      GridPruning ... 4 (adaptive)
Weight generation scheme         WeightScheme... Becke
Basis function cutoff            BFCut       ... 1.0000e-11
Integration weight cutoff        WCut        ... 1.0000e-14
Angular grids for H and He will be reduced by one unit
Partially contracted basis set               ... on
Rotationally invariant grid construction     ... off

Total number of grid points                  ...     7780
Total number of batches                      ...      123
Average number of points per batch           ...       63
Average number of grid points per atom       ...     2593
UseSFitting                                  ... on

Time for X-Grid setup             =    0.044 sec

--------------
SCF ITERATIONS
--------------
ITER       Energy         Delta-E        Max-DP      RMS-DP      [F,P]     Damp
               ***  Starting incremental Fock matrix formation  ***
                      *** Initiating the SOSCF procedure ***
                      *** Re-Reading the Fockian *** 
                      *** Removing any level shift *** 
ITER      Energy       Delta-E        Grad      Rot      Max-DP    RMS-DP
  0    -76.42600688 -76.4260068824  0.002681  0.002681  0.003548  0.000284
               *** Restarting incremental Fock matrix formation ***
  1    -76.42607162  -0.0000647361  0.000976  0.001229  0.001766  0.000118
  2    -76.42607491  -0.0000032906  0.000552  0.000561  0.000958  0.000061
  3    -76.42607602  -0.0000011142  0.000225  0.000280  0.000499  0.000035
  4    -76.42607645  -0.0000004311  0.000020  0.000022  0.000029  0.000002
  5    -76.42607646  -0.0000000027  0.000006  0.000003  0.000003  0.000000
                 **** Energy Check signals convergence ****
              ***Rediagonalizing the Fockian in SOSCF/NRSCF***

               *****************************************************
               *                     SUCCESS                       *
               *           SCF CONVERGED AFTER   6 CYCLES          *
               *****************************************************

Old exchange energy                            =     -1.785804181 Eh
New exchange energy                            =     -1.785783676 Eh
Exchange energy change after final integration =      0.000020505 Eh
Total energy after final integration           =    -76.426055953 Eh
Final COS-X integration done in                =     0.081 sec
Total Energy       :          -76.42605595 Eh           -2079.65871 eV
  Last Energy change         ...   -2.1377e-10  Tolerance :   1.0000e-08
  Last MAX-Density change    ...    8.8818e-16  Tolerance :   1.0000e-07
             **** THE GBW FILE WAS UPDATED (water.gbw) ****
             **** DENSITY water.scfp WAS UPDATED ****
             **** ENERGY FILE WAS UPDATED (water.en.tmp) ****
             **** THE GBW FILE WAS UPDATED (water.gbw) ****
             **** DENSITY water.scfp WAS UPDATED ****
Total SCF time: 0 days 0 hours 0 min 0 sec 

Maximum memory used throughout the entire SCF-calculation: 57.6 MB


-------------------------------------------------------------------------------
                          DFT DISPERSION CORRECTION                            
                                                                               
                              DFTD3 V3.1  Rev 1                                
                          USING Becke-Johnson damping                          
-------------------------------------------------------------------------------
-------------------------   ----------------
Dispersion correction           -0.000573831
-------------------------   ----------------


-------------------------   --------------------
FINAL SINGLE POINT ENERGY       -76.426629783932
-------------------------   --------------------



           ************************************************************
           *        Program running with 8 parallel MPI-processes     *
           *              working on a common directory               *
           ************************************************************
------------------------------------------------------------------------------
                         ORCA SCF GRADIENT CALCULATION
------------------------------------------------------------------------------

 ... reading COSX grid (gridx3)
Gradient of the Kohn-Sham DFT energy:
Kohn-Sham wavefunction type      ... RKS
Hartree-Fock exchange scaling    ...    0.200
Number of operators              ...    1
Number of atoms                  ...    3
Basis set dimensions             ...   43
Integral neglect threshold       ... 2.5e-11
Integral primitive cutoff        ... 2.5e-12
SHARK Integral package           ... ON

Nuc. rep. gradient       (SHARK) ... done (  0.0 sec)
HCore & Overlap gradient (SHARK) ... done (  0.0 sec)
RI-J gradient            (SHARK) ... done (  0.1 sec)
COSX-gradient                    ... done (  0.1 sec)
Exchange-correlation gradient    ... done
Dispersion correction            ... done

------------------
CARTESIAN GRADIENT
------------------

   1   O   :   -0.000000020   -0.000000029   -0.000211401
   2   H   :   -0.000000001    0.000092435    0.000025170
   3   H   :   -0.000000002   -0.000092413    0.000025185

Difference to translation invariance:
           :   -0.0000000228   -0.0000000073   -0.0001610468

Difference to rotation invariance:
           :   -0.0000000050    0.0000000029    0.0000000010

Norm of the cartesian gradient     ...    0.0002510832
RMS gradient                       ...    0.0000836944
MAX gradient                       ...    0.0002114015

-------
TIMINGS
-------

Total SCF gradient time            ...        0.447 sec

One electron gradient       ....       0.003 sec  (  0.8%)
RI-J Coulomb gradient       ....       0.085 sec  ( 19.1%)
COSX gradient               ....       0.104 sec  ( 23.2%)
XC gradient                 ....       0.028 sec  (  6.4%)

Maximum memory used throughout the entire SCFGRAD-calculation: 32.9 MB
------------------------------------------------------------------------------
                         ORCA GEOMETRY RELAXATION STEP
------------------------------------------------------------------------------

Reading the OPT-File                    .... done
Getting information on internals        .... done
Copying old internal coords+grads       .... done
Making the new internal coordinates     .... (new redundants).... done
Validating the new internal coordinates .... (new redundants).... done
Calculating the B-matrix                .... done
Calculating the G,G- and P matrices     .... done
Transforming gradient to internals      .... done
Projecting the internal gradient        .... done
Number of atoms                         ....   3
Number of internal coordinates          ....   3
Current Energy                          ....   -76.426629784 Eh
Current gradient norm                   ....     0.000251083 Eh/bohr
Maximum allowed component of the step   ....  0.300
Current trust radius                    ....  0.300
Updating the Hessian (BFGS)             .... done
Forming the augmented Hessian           .... done
Diagonalizing the augmented Hessian     .... done
Last element of RFO vector              ....  0.999998986
Lowest eigenvalues of augmented Hessian:
 -0.000000306  0.148393168  0.519956171
Length of the computed step             ....  0.001424411
The final length of the internal step   ....  0.001424411
Converting the step to cartesian space:
 Initial RMS(Int)=    0.0008223843
Transforming coordinates:
 Iter   0:  RMS(Cart)=    0.0004584169 RMS(Int)=    0.0008223868
 Iter   1:  RMS(Cart)=    0.0000001928 RMS(Int)=    0.0000003767
 Iter   2:  RMS(Cart)=    0.0000000001 RMS(Int)=    0.0000000002
done
Storing new coordinates                 .... done

                                .--------------------.
          ----------------------|Geometry convergence|-------------------------
          Item                value                   Tolerance       Converged
          ---------------------------------------------------------------------
          Energy change      -0.0001257605            0.0000050000      NO
          RMS gradient        0.0001265160            0.0001000000      NO
          MAX gradient        0.0002161392            0.0003000000      YES
          RMS step            0.0008223843            0.0020000000      YES
          MAX step            0.0014236742            0.0040000000      YES
          ........................................................
          Max(Bonds)      0.0000      Max(Angles)    0.08
          Max(Dihed)        0.00      Max(Improp)    0.00
          ---------------------------------------------------------------------

The optimization has not yet converged - more geometry cycles are needed


    ---------------------------------------------------------------------------
                         Redundant Internal Coordinates
                            (Angstroem and degrees)

        Definition                    Value    dE/dq     Step     New-Value
    ----------------------------------------------------------------------------
     1. B(H   1,O   0)                0.9629 -0.000026 -0.0000    0.9629   
     2. B(H   2,O   0)                0.9629 -0.000026 -0.0000    0.9629   
     3. A(H   1,O   0,H   2)          105.20 -0.000216    0.08    105.28   
    ----------------------------------------------------------------------------

         *************************************************************
         *                GEOMETRY OPTIMIZATION CYCLE   4            *
         *************************************************************
---------------------------------
CARTESIAN COORDINATES (ANGSTROEM)
---------------------------------
  O      0.000000    0.000000   -0.130881
  H      0.000000   -0.765321    0.453420
  H      0.000000    0.765321    0.453420

----------------------------
CARTESIAN COORDINATES (A.U.)
----------------------------
  NO LB      ZA    FRAG     MASS         X           Y           Z
   0 O     8.0000    0    15.999    0.000000    0.000000   -0.247330
   1 H     1.0000    0     1.008    0.000000   -1.446247    0.856840
   2 H     1.0000    0     1.008    0.000000    1.446247    0.856840

--------------------------------
INTERNAL COORDINATES (ANGSTROEM)
--------------------------------
 O      0   0   0     0.000000000000     0.00000000     0.00000000
 H      1   0   0     0.962872945958     0.00000000     0.00000000
 H      1   2   0     0.962872939509   105.27854836     0.00000000

---------------------------
INTERNAL COORDINATES (A.U.)
---------------------------
 O      0   0   0     0.000000000000     0.00000000     0.00000000
 H      1   0   0     1.819566169622     0.00000000     0.00000000
 H      1   2   0     1.819566157436   105.27854836     0.00000000



           ************************************************************
           *        Program running with 8 parallel MPI-processes     *
           *              working on a common directory               *
           ************************************************************
------------------------------------------------------------------------------
                   ___                                                        
                  /   \      - P O W E R E D   B Y -                         
                 /     \                                                     
                 |  |  |   _    _      __       _____    __    __             
                 |  |  |  | |  | |    /  \     |  _  \  |  |  /  |          
                  \  \/   | |  | |   /    \    | | | |  |  | /  /          
                 / \  \   | |__| |  /  /\  \   | |_| |  |  |/  /          
                |  |  |   |  __  | /  /__\  \  |    /   |      \           
                |  |  |   | |  | | |   __   |  |    \   |  |\   \          
                \     /   | |  | | |  |  |  |  | |\  \  |  | \   \       
                 \___/    |_|  |_| |__|  |__|  |_| \__\ |__|  \__/        
                                                                              
                      - O R C A' S   B I G   F R I E N D -                    
                                      &                                       
                       - I N T E G R A L  F E E D E R -                       
                                                                              
 v1 FN, 2020, v2 2021                                                         
------------------------------------------------------------------------------


Reading SHARK input file water.SHARKINP.tmp ... ok
----------------------
SHARK INTEGRAL PACKAGE
----------------------

Number of atoms                             ...      3
Number of basis functions                   ...     43
Number of shells                            ...     19
Maximum angular momentum                    ...      3
Integral batch strategy                     ... SHARK/LIBINT Hybrid
RI-J (if used) integral strategy            ... SPLIT-RIJ (Revised 2003 algorithm where possible)
Printlevel                                  ...      1
Contraction scheme used                     ... SEGMENTED contraction
Coulomb Range Separation                    ... NOT USED
Exchange Range Separation                   ... NOT USED
Finite Nucleus Model                        ... NOT USED
Auxiliary Coulomb fitting basis             ... AVAILABLE
   # of basis functions in Aux-J            ...     71
   # of shells in Aux-J                     ...     25
   Maximum angular momentum in Aux-J        ...      4
Auxiliary J/K fitting basis                 ... NOT available
Auxiliary Correlation fitting basis         ... NOT available
Auxiliary 'external' fitting basis          ... NOT available
Integral threshold                          ...     2.500000e-11
Primitive cut-off                           ...     2.500000e-12
Primitive pair pre-selection threshold      ...     2.500000e-12

Calculating pre-screening integrals         ... done (  0.1 sec) Dimension = 19
Organizing shell pair data                  ... done (  0.0 sec)
Shell pair information
Total number of shell pairs                 ...       190
Shell pairs after pre-screening             ...       190
Total number of primitive shell pairs       ...       556
Primitive shell pairs kept                  ...       535
          la=0 lb=0:     66 shell pairs
          la=1 lb=0:     55 shell pairs
          la=1 lb=1:     15 shell pairs
          la=2 lb=0:     22 shell pairs
          la=2 lb=1:     10 shell pairs
          la=2 lb=2:      3 shell pairs
          la=3 lb=0:     11 shell pairs
          la=3 lb=1:      5 shell pairs
          la=3 lb=2:      2 shell pairs
          la=3 lb=3:      1 shell pairs

Calculating one electron integrals          ... done (  0.0 sec)
Calculating RI/J V-Matrix + Cholesky decomp.... done (  0.0 sec)
Calculating Nuclear repulsion               ... done (  0.0 sec) ENN=      9.139027236377 Eh

SHARK setup successfully completed in   0.2 seconds

Maximum memory used throughout the entire GTOINT-calculation: 13.8 MB


           ************************************************************
           *        Program running with 8 parallel MPI-processes     *
           *              working on a common directory               *
           ************************************************************

Diagonalization of the overlap matrix:
Smallest eigenvalue                        ... 8.510e-03
Time for diagonalization                   ...    0.001 sec
Threshold for overlap eigenvalues          ... 1.000e-08
Number of eigenvalues below threshold      ... 0
Time for construction of square roots      ...    0.001 sec
Total time needed                          ...    0.002 sec

-------------------
DFT GRID GENERATION
-------------------

General Integration Accuracy     IntAcc      ... 4.388
Radial Grid Type                 RadialGrid  ... OptM3 with GC (2021)
Angular Grid (max. ang.)         AngularGrid ... 4 (Lebedev-302)
Angular grid pruning method      GridPruning ... 4 (adaptive)
Weight generation scheme         WeightScheme... Becke
Basis function cutoff            BFCut       ... 1.0000e-11
Integration weight cutoff        WCut        ... 1.0000e-14
Angular grids for H and He will be reduced by one unit
Partially contracted basis set               ... off
Rotationally invariant grid construction     ... off

Total number of grid points                  ...    12756
Total number of batches                      ...      201
Average number of points per batch           ...       63
Average number of grid points per atom       ...     4252
Time for grid setup =    0.066 sec

--------------------
COSX GRID GENERATION
--------------------

GRIDX 1
-------
General Integration Accuracy     IntAcc      ... 3.816
Radial Grid Type                 RadialGrid  ... OptM3 with GC (2021)
Angular Grid (max. ang.)         AngularGrid ... 1 (Lebedev-50)
Angular grid pruning method      GridPruning ... 4 (adaptive)
Weight generation scheme         WeightScheme... Becke
Basis function cutoff            BFCut       ... 1.0000e-11
Integration weight cutoff        WCut        ... 1.0000e-14
Angular grids for H and He will be reduced by one unit
Partially contracted basis set               ... on
Rotationally invariant grid construction     ... off

Total number of grid points                  ...     1652
Total number of batches                      ...       27
Average number of points per batch           ...       61
[...]
Total number of batches                      ...      122
Average number of points per batch           ...       63
Average number of grid points per atom       ...     2593
UseSFitting                                  ... on

Time for X-Grid setup             =    0.039 sec

--------------
SCF ITERATIONS
--------------
ITER       Energy         Delta-E        Max-DP      RMS-DP      [F,P]     Damp
               ***  Starting incremental Fock matrix formation  ***
                      *** Initiating the SOSCF procedure ***
                      *** Re-Reading the Fockian *** 
                      *** Removing any level shift *** 
ITER      Energy       Delta-E        Grad      Rot      Max-DP    RMS-DP
  0    -76.42607625 -76.4260762506  0.000002  0.000002  0.000002  0.000000
               *** Restarting incremental Fock matrix formation ***
                 **** Energy Check signals convergence ****
              ***Rediagonalizing the Fockian in SOSCF/NRSCF***

               *****************************************************
               *                     SUCCESS                       *
               *           SCF CONVERGED AFTER   1 CYCLES          *
               *****************************************************

Old exchange energy                            =     -1.785806552 Eh
New exchange energy                            =     -1.785786294 Eh
Exchange energy change after final integration =      0.000020258 Eh
Total energy after final integration           =    -76.426055993 Eh
Final COS-X integration done in                =     0.077 sec
Total Energy       :          -76.42605599 Eh           -2079.65871 eV
  Last Energy change         ...   -9.4374e-11  Tolerance :   1.0000e-08
  Last MAX-Density change    ...    4.4409e-16  Tolerance :   1.0000e-07
             **** THE GBW FILE WAS UPDATED (water.gbw) ****
             **** DENSITY water.scfp WAS UPDATED ****
             **** ENERGY FILE WAS UPDATED (water.en.tmp) ****
             **** THE GBW FILE WAS UPDATED (water.gbw) ****
             **** DENSITY water.scfp WAS UPDATED ****
----------------
ORBITAL ENERGIES
----------------

  NO   OCC          E(Eh)            E(eV) 
   0   2.0000     -19.123817      -520.3855 
   1   2.0000      -1.010556       -27.4986 
   2   2.0000      -0.531981       -14.4759 
   3   2.0000      -0.387061       -10.5325 
   4   2.0000      -0.312925        -8.5151 
   5   0.0000       0.016533         0.4499 
   6   0.0000       0.091510         2.4901 
   7   0.0000       0.359586         9.7848 
   8   0.0000       0.407430        11.0867 
   9   0.0000       0.427861        11.6427 
  10   0.0000       0.437297        11.8995 
  11   0.0000       0.570948        15.5363 
  12   0.0000       0.597168        16.2498 
  13   0.0000       1.169498        31.8236 
  14   0.0000       1.188708        32.3464 
  15   0.0000       1.298153        35.3245 
  16   0.0000       1.522914        41.4406 
  17   0.0000       1.630808        44.3765 
  18   0.0000       1.747347        47.5477 
  19   0.0000       1.977699        53.8159 
  20   0.0000       2.051808        55.8325 
  21   0.0000       2.103699        57.2446 
  22   0.0000       2.279788        62.0362 
  23   0.0000       2.382395        64.8283 
  24   0.0000       2.571688        69.9792 
  25   0.0000       2.601354        70.7864 
  26   0.0000       2.605924        70.9108 
  27   0.0000       2.771521        75.4169 
  28   0.0000       3.626498        98.6820 
  29   0.0000       3.923170       106.7549 
  30   0.0000       5.098973       138.7501 
  31   0.0000       5.196784       141.4117 
  32   0.0000       5.376419       146.2998 
  33   0.0000       5.398154       146.8912 
  34   0.0000       5.467142       148.7685 
  35   0.0000       6.015048       163.6778 
  36   0.0000       6.205487       168.8599 
  37   0.0000       6.299034       171.4054 
  38   0.0000       6.364879       173.1972 
  39   0.0000       6.410263       174.4321 
  40   0.0000       6.901670       187.8040 
  41   0.0000       6.979270       189.9156 
  42   0.0000      43.224044      1176.1860 
Total SCF time: 0 days 0 hours 0 min 0 sec 

Maximum memory used throughout the entire SCF-calculation: 57.6 MB


-------------------------------------------------------------------------------
                          DFT DISPERSION CORRECTION                            
                                                                               
                              DFTD3 V3.1  Rev 1                                
                          USING Becke-Johnson damping                          
-------------------------------------------------------------------------------
-------------------------   ----------------
Dispersion correction           -0.000573827
-------------------------   ----------------


-------------------------   --------------------
FINAL SINGLE POINT ENERGY       -76.426629819773
-------------------------   --------------------

                                *** OPTIMIZATION RUN DONE ***

                            ***************************************
                            *     ORCA property calculations      *
                            ***************************************

                                    ---------------------
                                    Active property flags
                                    ---------------------
   (+) Dipole Moment


------------------------------------------------------------------------------
                       ORCA ELECTRIC PROPERTIES CALCULATION
------------------------------------------------------------------------------

Dipole Moment Calculation                       ... on
Quadrupole Moment Calculation                   ... off
Polarizability Calculation                      ... off
GBWName                                         ... water.gbw
Electron density                                ... water.scfp
The origin for moment calculation is the CENTER OF MASS  = ( 0.000000,  0.000000 -0.123775)

-------------
DIPOLE MOMENT
-------------
                                X             Y             Z
Electronic contribution:     -0.00000      -0.00000      -0.16132
Nuclear contribution   :      0.00000      -0.00000       0.97271
                        -----------------------------------------
Total Dipole Moment    :     -0.00000      -0.00000       0.81140
                        -----------------------------------------
Magnitude (a.u.)       :      0.81140
Magnitude (Debye)      :      2.06240



--------------------
Rotational spectrum 
--------------------
 
Rotational constants in cm-1:    27.577908    14.276698     9.406885 
Rotational constants in MHz : 826764.874510 428004.645650 282011.318784 

 Dipole components along the rotational axes: 
x,y,z [a.u.] :     0.000000     0.811396    -0.000000 
x,y,z [Debye]:     0.000000     2.062404    -0.000000 

 


           ************************************************************
           *        Program running with 8 parallel MPI-processes     *
           *              working on a common directory               *
           ************************************************************

-------------------------------------------------------------------------------
                               ORCA SCF HESSIAN
-------------------------------------------------------------------------------

                   --------- SHARK INITIALIZATION DONE ---------

Hessian of the Kohn-Sham DFT energy:
Kohn-Sham wavefunction type                      ... RKS
Hartree-Fock exchange scaling                    ...    0.200
Number of operators                              ...    1
Number of atoms                                  ...    3
Basis set dimensions                             ...   43
Integral neglect threshold                       ... 2.5e-11
Integral primitive cutoff                        ... 2.5e-12

Setting up DFT Hessian calculations              ... 

HESS GRID
---------

General Integration Accuracy     IntAcc      ... 4.629
Radial Grid Type                 RadialGrid  ... OptM3 with GC (2021)
Angular Grid (max. ang.)         AngularGrid ... 5 (Lebedev-434)
Angular grid pruning method      GridPruning ... 4 (adaptive)
Weight generation scheme         WeightScheme... Becke
Basis function cutoff            BFCut       ... 1.0000e-11
Integration weight cutoff        WCut        ... 1.0000e-14
Angular grids for H and He will be reduced by one unit
Partially contracted basis set               ... off
Rotationally invariant grid construction     ... off

Total number of grid points                  ...    19972
Total number of batches                      ...      314
Average number of points per batch           ...       63
Average number of grid points per atom       ...     6657

Building densities                               ... done   (      0.0 sec)
Calculating rho(r) on the grid                   ... done   (      0.0 sec)
Building xc-kernel on the grid                   ... done   (      0.0 sec)
                                                     done   (      0.2 sec)

Nuclear repulsion Hessian  (SHARK)               ... done   (      0.0 sec)

----------------------------------------------
Forming right-hand sides of CP-SCF equations     ...
----------------------------------------------
One electron integral derivatives  (SHARK)       ... done   (      0.0 sec)
Transforming the overlap derivative matrices     ... done   (      0.0 sec)
Making the Q(x) pseudodensities                  ... done   (      0.0 sec)
Adding the E*S(x)*S(y) terms to the Hessian      ... done   (      0.0 sec)
Calculating energy weighted overlap derivatives  ... done   (      0.0 sec)
Two electron integral derivatives (SHARK-RI)     ... done   (      0.2 sec)
Exchange-correlation integral derivatives        ... done   (      0.2 sec)
tr(F(y)Q(x)) contribution to the Hessian         ... done   (      0.0 sec)
Response fock operator R(S(x)) (SHARK-RIJCOSX)   ... done   (      0.3 sec)
XC Response fock operator R(S(x))                ... done   (      0.1 sec)
tr(F(y)S(x)) contribution to the Hessian         ... done   (      0.0 sec)
Transforming and finalizing RHSs                 ... done   (      0.0 sec)

----------------------------------------------
Solving the CP-SCF equations (RIJCOSX)           ...
----------------------------------------------
     CP-SCF ITERATION   0:   2.0275e-01 (   0.2 sec   0/  9 done)
     CP-SCF ITERATION   1:   1.2637e-02 (   0.2 sec   0/  9 done)
     CP-SCF ITERATION   2:   1.7277e-03 (   0.2 sec   0/  9 done)
     CP-SCF ITERATION   3:   2.3658e-04 (   0.2 sec   4/  9 done)
     CP-SCF ITERATION   4:   3.5024e-05 (   0.2 sec   9/  9 done)
                    *** THE CP-SCF HAS CONVERGED ***

                                                 ... done   (      1.2 sec)
Forming perturbed density Hessian contributions  ... done   (      0.0 sec)
2nd integral derivative contribs (SHARK-RI)      ... done   (      0.5 sec)
Exchange-correlation Hessian                     ... done   (      0.3 sec)
Dispersion correction in the Hessian             ... done   (      0.3 sec)
Dipole derivatives                               ... (center of mass:  0.000000,  0.000000 -0.123775)done   (      0.1 sec)

Total SCF Hessian time: 0 days 0 hours 0 min 3 sec 

Writing the Hessian file to the disk             ... done


Maximum memory used throughout the entire SCFHESS-calculation: 63.7 MB

-----------------------
VIBRATIONAL FREQUENCIES
-----------------------

Scaling factor for frequencies =  1.000000000  (already applied!)

   0:         0.00 cm**-1
   1:         0.00 cm**-1
   2:         0.00 cm**-1
   3:         0.00 cm**-1
   4:         0.00 cm**-1
   5:         0.00 cm**-1
   6:      1615.77 cm**-1
   7:      3781.57 cm**-1
   8:      3886.52 cm**-1


------------
NORMAL MODES
------------

These modes are the Cartesian displacements weighted by the diagonal matrix
M(i,i)=1/sqrt(m[i]) where m[i] is the mass of the displaced atom
Thus, these vectors are normalized but *not* orthogonal

                  0          1          2          3          4          5    
      0       0.000000   0.000000   0.000000   0.000000   0.000000   0.000000
      1       0.000000   0.000000   0.000000   0.000000   0.000000   0.000000
      2       0.000000   0.000000   0.000000   0.000000   0.000000   0.000000
      3       0.000000   0.000000   0.000000   0.000000   0.000000   0.000000
      4       0.000000   0.000000   0.000000   0.000000   0.000000   0.000000
      5       0.000000   0.000000   0.000000   0.000000   0.000000   0.000000
      6       0.000000   0.000000   0.000000   0.000000   0.000000   0.000000
      7       0.000000   0.000000   0.000000   0.000000   0.000000   0.000000
      8       0.000000   0.000000   0.000000   0.000000   0.000000   0.000000
                  6          7          8    
      0       0.000000  -0.000000  -0.000000
      1      -0.000000  -0.000000   0.070643
      2      -0.071238   0.049149   0.000000
      3      -0.000000   0.000000  -0.000000
      4       0.421718   0.588776  -0.560620
      5       0.565346  -0.390046   0.428029
      6       0.000000  -0.000000   0.000000
      7      -0.421718  -0.588775  -0.560622
      8       0.565346  -0.390046  -0.428029


-----------
IR SPECTRUM
-----------

 Mode   freq       eps      Int      T**2         TX        TY        TZ
       cm**-1   L/(mol*cm) km/mol    a.u.
----------------------------------------------------------------------------
  6:   1615.77   0.015973   80.72  0.003085  (-0.000000  0.000000  0.055543)
  7:   3781.57   0.000830    4.20  0.000069  (-0.000000  0.000000 -0.008278)
  8:   3886.52   0.008571   43.31  0.000688  (-0.000000 -0.026233 -0.000000)

* The epsilon (eps) is given for a Dirac delta lineshape.
** The dipole moment derivative (T) already includes vibrational overlap.

The first frequency considered to be a vibration is 6
The total number of vibrations considered is 3


--------------------------
THERMOCHEMISTRY AT 298.15K
--------------------------

Temperature         ... 298.15 K
Pressure            ... 1.00 atm
Total Mass          ... 18.02 AMU

Throughout the following assumptions are being made:
  (1) The electronic state is orbitally nondegenerate
  (2) There are no thermally accessible electronically excited states
  (3) Hindered rotations indicated by low frequency modes are not
      treated as such but are treated as vibrations and this may
      cause some error
  (4) All equations used are the standard statistical mechanics
      equations for an ideal gas
  (5) All vibrations are strictly harmonic

freq.    1615.77  E(vib)   ...       0.00 
freq.    3781.57  E(vib)   ...       0.00 
freq.    3886.52  E(vib)   ...       0.00 

------------
INNER ENERGY
------------

The inner energy is: U= E(el) + E(ZPE) + E(vib) + E(rot) + E(trans)
    E(el)   - is the total energy from the electronic structure calculation
              = E(kin-el) + E(nuc-el) + E(el-el) + E(nuc-nuc)
    E(ZPE)  - the the zero temperature vibrational energy from the frequency calculation
    E(vib)  - the the finite temperature correction to E(ZPE) due to population
              of excited vibrational states
    E(rot)  - is the rotational thermal energy
    E(trans)- is the translational thermal energy

Summary of contributions to the inner energy U:
Electronic energy                ...    -76.42662982 Eh
Zero point energy                ...      0.02115021 Eh      13.27 kcal/mol
Thermal vibrational correction   ...      0.00000303 Eh       0.00 kcal/mol
Thermal rotational correction    ...      0.00141627 Eh       0.89 kcal/mol
Thermal translational correction ...      0.00141627 Eh       0.89 kcal/mol
-----------------------------------------------------------------------
Total thermal energy                    -76.40264404 Eh


Summary of corrections to the electronic energy:
(perhaps to be used in another calculation)
Total thermal correction                  0.00283557 Eh       1.78 kcal/mol
Non-thermal (ZPE) correction              0.02115021 Eh      13.27 kcal/mol
-----------------------------------------------------------------------
Total correction                          0.02398578 Eh      15.05 kcal/mol


--------
ENTHALPY
--------

The enthalpy is H = U + kB*T
                kB is Boltzmann's constant
Total free energy                 ...    -76.40264404 Eh 
Thermal Enthalpy correction       ...      0.00094421 Eh       0.59 kcal/mol
-----------------------------------------------------------------------
Total Enthalpy                    ...    -76.40169983 Eh


Note: Rotational entropy computed according to Herzberg 
Infrared and Raman Spectra, Chapter V,1, Van Nostrand Reinhold, 1945 
Point Group:  C2v, Symmetry Number:   2  
Rotational constants in cm-1:    27.577908    14.276698     9.406885 

Vibrational entropy computed according to the QRRHO of S. Grimme
Chem.Eur.J. 2012 18 9955


-------
ENTROPY
-------

The entropy contributions are T*S = T*(S(el)+S(vib)+S(rot)+S(trans))
     S(el)   - electronic entropy
     S(vib)  - vibrational entropy
     S(rot)  - rotational entropy
     S(trans)- translational entropy
The entropies will be listed as multiplied by the temperature to get
units of energy

Electronic entropy                ...      0.00000000 Eh      0.00 kcal/mol
Vibrational entropy               ...      0.00000342 Eh      0.00 kcal/mol
Rotational entropy                ...      0.00497715 Eh      3.12 kcal/mol
Translational entropy             ...      0.01644380 Eh     10.32 kcal/mol
-----------------------------------------------------------------------
Final entropy term                ...      0.02142436 Eh     13.44 kcal/mol

In case the symmetry of your molecule has not been determined correctly
or in case you have a reason to use a different symmetry number we print 
out the resulting rotational entropy values for sn=1,12 :
 --------------------------------------------------------
|  sn= 1 | S(rot)=       0.00563160 Eh      3.53 kcal/mol|
|  sn= 2 | S(rot)=       0.00497715 Eh      3.12 kcal/mol|
|  sn= 3 | S(rot)=       0.00459431 Eh      2.88 kcal/mol|
|  sn= 4 | S(rot)=       0.00432269 Eh      2.71 kcal/mol|
|  sn= 5 | S(rot)=       0.00411200 Eh      2.58 kcal/mol|
|  sn= 6 | S(rot)=       0.00393986 Eh      2.47 kcal/mol|
|  sn= 7 | S(rot)=       0.00379431 Eh      2.38 kcal/mol|
|  sn= 8 | S(rot)=       0.00366823 Eh      2.30 kcal/mol|
|  sn= 9 | S(rot)=       0.00355702 Eh      2.23 kcal/mol|
|  sn=10 | S(rot)=       0.00345755 Eh      2.17 kcal/mol|
|  sn=11 | S(rot)=       0.00336756 Eh      2.11 kcal/mol|
|  sn=12 | S(rot)=       0.00328540 Eh      2.06 kcal/mol|
 --------------------------------------------------------


-------------------
GIBBS FREE ENERGY
-------------------

The Gibbs free energy is G = H - T*S

Total enthalpy                    ...    -76.40169983 Eh 
Total entropy correction          ...     -0.02142436 Eh    -13.44 kcal/mol
-----------------------------------------------------------------------
Final Gibbs free energy         ...    -76.42312419 Eh

For completeness - the Gibbs free energy minus the electronic energy
G-E(el)                           ...      0.00350563 Eh      2.20 kcal/mol


Timings for individual modules:

Sum of individual times         ...       14.044 sec (=   0.234 min)
GTO integral calculation        ...        1.685 sec (=   0.028 min)  12.0 %
SCF iterations                  ...        5.367 sec (=   0.089 min)  38.2 %
SCF Gradient evaluation         ...        2.766 sec (=   0.046 min)  19.7 %
Geometry relaxation             ...        0.069 sec (=   0.001 min)   0.5 %
Analytical frequency calculation...        4.157 sec (=   0.069 min)  29.6 %
                             ****ORCA TERMINATED NORMALLY****
TOTAL RUN TIME: 0 days 0 hours 0 minutes 15 seconds 116 msec
